
48 atoms
2 atom types
0.0000000000000 9.4582996368000 xlo xhi
0.0000000000000 6.0100002289000 ylo yhi
0.0000000000000 8.3182501540000 zlo zhi
0.0000000000000 -2.0097841927000 0.0000000000000 xy xz yz

Atom Type Labels

1 C
2 H

Atoms # atomic

1 1 4.8710825990000 3.4960172950000 4.8167660840000
2 1 2.5774328450000 2.5139829340000 3.5014840700000
3 1 1.5725407490000 0.4910171810000 7.6606091470000
4 1 5.8759746950000 5.5189830480000 0.6576410070000
5 1 6.0409784440000 3.9317422550000 5.5041862130000
6 1 1.4075370000000 2.0782579740000 2.8140639410000
7 1 0.4026449040000 0.9267421400000 6.9731890180000
8 1 7.0458705410000 5.0832580890000 1.3450611360000
9 1 6.6080748830000 3.1816940670000 6.4649438830000
10 1 0.8404405610000 2.8283061620000 1.8533062710000
11 1 -0.1644515350000 0.1766939530000 6.0124313480000
12 1 7.6129669790000 5.8333062760000 2.3058188060000
13 1 6.0651373010000 1.9262049920000 6.8134788870000
14 1 1.3833781430000 4.0837950580000 1.5047712670000
15 1 0.3784860460000 4.9312052850000 5.6638963440000
16 1 7.0700293980000 1.0787951230000 2.6543538100000
17 1 4.9687813680000 1.4604300600000 6.1798775460000
18 1 2.4797340760000 4.5495699900000 2.1383726080000
19 1 1.4748419800000 4.4654303530000 6.2974976850000
20 1 5.9736734640000 1.5445700550000 2.0207524690000
21 1 4.3260084350000 2.2152861500000 5.1545698550000
22 1 3.1225070090000 3.7947140790000 3.1636802990000
23 1 2.1176149130000 5.2202862640000 7.3228053760000
24 1 5.3309005310000 0.7897139650000 0.9954447780000
25 1 4.2513962690000 4.2484691650000 3.8254801300000
26 1 3.1971191750000 1.7615310640000 4.4927700240000
27 1 4.2020112720000 1.2434690510000 0.3336449470000
28 1 3.2465041720000 4.7665311780000 7.9846052070000
29 2 6.3983217090000 4.8140101780000 5.2504796270000
30 2 1.0501937350000 1.1959900510000 3.0677705270000
31 2 0.0453016390000 1.8090100630000 7.2268956040000
32 2 7.4032138050000 4.2009901660000 1.0913545500000
33 2 7.4132661910000 3.4858000320000 6.9374205570000
34 2 0.0352492540000 2.5242001960000 1.3808295970000
35 2 -0.9696428430000 0.4807999180000 5.5399546740000
36 2 8.4181582870000 5.5292003110000 2.7782954800000
37 2 6.4780836590000 1.3582600280000 7.5196980080000
38 2 0.9704317850000 4.6517401110000 0.7985521460000
39 2 -0.0344603120000 4.3632602320000 4.9576772230000
40 2 7.4829757560000 1.6467399970000 3.3605729310000
41 2 4.5471460670000 0.5288800170000 6.3825934240000
42 2 2.9013693770000 5.4811202120000 1.9356567300000
43 2 1.8964772810000 3.5338801320000 6.0947818070000
44 2 5.5520381630000 2.4761200970000 2.2234683470000
45 2 4.6517788490000 5.1625903600000 3.5968112680000
46 2 2.7967365960000 0.8474098690000 4.7214388860000
47 2 3.8016286920000 2.1575902460000 0.5623138090000
48 2 3.6468867520000 3.8524099830000 7.7559363450000
